created by fftool

5 atoms
4 bonds
6 angles
2 atom types
1 bond types
1 angle types
0.000000 11.841855 xlo xhi
0.000000 11.841855 ylo yhi
0.000000 11.841855 zlo zhi

Masses

   1   10.811
   2   18.998

Pair Coeffs

1 0.095005  3.580000  
2 0.060994  3.120000

Bond Coeffs

   1   386.591778     1.394000

Angle Coeffs

   1    80.007170   109.500000

Atoms

      1       1    2  -0.490000  1.545013e+00  1.532926e+00  2.279252e+00
      2       1    1   0.960000  2.660813e+00  2.340981e+00  2.492030e+00
      3       1    2  -0.490000  2.391008e+00  3.633785e+00  2.045824e+00
      4       1    2  -0.490000  2.959516e+00  2.372822e+00  3.853279e+00
      5       1    2  -0.490000  3.749299e+00  1.825539e+00  1.790066e+00

Bonds

      1    1       1       2
      2    1       3       2
      3    1       4       2
      4    1       5       2

Angles

      1    1       1       2       3
      2    1       1       2       4
      3    1       1       2       5
      4    1       3       2       4
      5    1       3       2       5
      6    1       4       2       5
