LAMMPS data file generated with LigParGen (israel.cabezadevaca@yale.edu)

     113 atoms
     112 bonds
     210 angles
     252 dihedrals
     113 atom types
     112 bond types
     210 angle types
     252 dihedral types

   -4.877000    45.123000 xlo xhi
   -8.272000    41.728000 ylo yhi
  -10.058000    39.942000 zlo zhi

Masses

       1     15.999
       2     32.067
       3     15.999
       4     14.007
       5     32.067
       6     15.999
       7     15.999
       8     12.011
       9     18.998
      10     18.998
      11     12.011
      12     18.998
      13     18.998
      14     15.999
      15     12.011
      16     18.998
      17     12.011
      18     18.998
      19     18.998
      20     32.067
      21     12.011
      22     12.011
      23     12.011
      24     32.067
      25     12.011
      26     18.998
      27     18.998
      28     12.011
      29     18.998
      30     15.999
      31     12.011
      32     18.998
      33     18.998
      34     12.011
      35     18.998
      36     18.998
      37     32.067
      38     15.999
      39     15.999
      40     14.007
      41     32.067
      42     15.999
      43     15.999
      44     12.011
      45     18.998
      46     18.998
      47     18.998
      48     12.011
      49     32.067
      50     12.011
      51     18.998
      52     18.998
      53     12.011
      54     18.998
      55     15.999
      56     12.011
      57     18.998
      58     18.998
      59     12.011
      60     18.998
      61     18.998
      62     32.067
      63     15.999
      64     15.999
      65     14.007
      66     32.067
      67     15.999
      68     15.999
      69     12.011
      70     18.998
      71     18.998
      72     18.998
      73     12.011
      74     32.067
      75     12.011
      76     18.998
      77     18.998
      78     12.011
      79     18.998
      80     15.999
      81     12.011
      82     18.998
      83     18.998
      84     12.011
      85     18.998
      86     18.998
      87     32.067
      88     15.999
      89     15.999
      90     14.007
      91     32.067
      92     15.999
      93     15.999
      94     12.011
      95     18.998
      96     18.998
      97     18.998
      98     12.011
      99     18.998
     100     18.998
     101     18.998
     102      1.008
     103      1.008
     104      1.008
     105      1.008
     106      1.008
     107      1.008
     108      1.008
     109      1.008
     110      1.008
     111      1.008
     112      1.008
     113      1.008

Pair Coeffs

       1      0.170  2.9600000
       2      0.250  3.5500000
       3      0.170  2.9600000
       4      0.170  3.2500000
       5      0.250  3.5500000
       6      0.170  2.9600000
       7      0.170  2.9600000
       8      0.066  3.5000000
       9      0.060  2.9000000
      10      0.060  2.9000000
      11      0.066  3.5000000
      12      0.060  2.9000000
      13      0.060  2.9000000
      14      0.140  2.9000000
      15      0.066  3.5000000
      16      0.060  2.9000000
      17      0.066  3.5000000
      18      0.060  2.9000000
      19      0.060  2.9000000
      20      0.355  3.6000000
      21      0.066  3.5000000
      22      0.066  3.5000000
      23      0.066  3.5000000
      24      0.355  3.6000000
      25      0.066  3.5000000
      26      0.060  2.9000000
      27      0.060  2.9000000
      28      0.066  3.5000000
      29      0.060  2.9000000
      30      0.140  2.9000000
      31      0.066  3.5000000
      32      0.060  2.9000000
      33      0.060  2.9000000
      34      0.066  3.5000000
      35      0.060  2.9000000
      36      0.060  2.9000000
      37      0.250  3.5500000
      38      0.170  2.9600000
      39      0.170  2.9600000
      40      0.170  3.2500000
      41      0.250  3.5500000
      42      0.170  2.9600000
      43      0.170  2.9600000
      44      0.066  3.5000000
      45      0.060  2.9000000
      46      0.060  2.9000000
      47      0.060  2.9000000
      48      0.066  3.5000000
      49      0.355  3.6000000
      50      0.066  3.5000000
      51      0.060  2.9000000
      52      0.060  2.9000000
      53      0.066  3.5000000
      54      0.060  2.9000000
      55      0.140  2.9000000
      56      0.066  3.5000000
      57      0.060  2.9000000
      58      0.060  2.9000000
      59      0.066  3.5000000
      60      0.060  2.9000000
      61      0.060  2.9000000
      62      0.250  3.5500000
      63      0.170  2.9600000
      64      0.170  2.9600000
      65      0.170  3.2500000
      66      0.250  3.5500000
      67      0.170  2.9600000
      68      0.170  2.9600000
      69      0.066  3.5000000
      70      0.060  2.9000000
      71      0.060  2.9000000
      72      0.060  2.9000000
      73      0.066  3.5000000
      74      0.355  3.6000000
      75      0.066  3.5000000
      76      0.060  2.9000000
      77      0.060  2.9000000
      78      0.066  3.5000000
      79      0.060  2.9000000
      80      0.140  2.9000000
      81      0.066  3.5000000
      82      0.060  2.9000000
      83      0.060  2.9000000
      84      0.066  3.5000000
      85      0.060  2.9000000
      86      0.060  2.9000000
      87      0.250  3.5500000
      88      0.170  2.9600000
      89      0.170  2.9600000
      90      0.170  3.2500000
      91      0.250  3.5500000
      92      0.170  2.9600000
      93      0.170  2.9600000
      94      0.066  3.5000000
      95      0.060  2.9000000
      96      0.060  2.9000000
      97      0.060  2.9000000
      98      0.066  3.5000000
      99      0.060  2.9000000
     100      0.060  2.9000000
     101      0.060  2.9000000
     102      0.030  2.5000000
     103      0.030  2.5000000
     104      0.030  2.5000000
     105      0.030  2.5000000
     106      0.030  2.5000000
     107      0.030  2.5000000
     108      0.030  2.5000000
     109      0.030  2.5000000
     110      0.030  2.5000000
     111      0.030  2.5000000
     112      0.030  2.5000000
     113      0.030  2.5000000

Bond Coeffs

       1   268.0000     1.5290
       2   268.0000     1.5290
       3   222.0000     1.8100
       4   222.0000     1.8100
       5   367.0000     1.3320
       6   367.0000     1.3320
       7   268.0000     1.5290
       8   367.0000     1.3600
       9   320.0000     1.4100
      10   320.0000     1.4100
      11   367.0000     1.3320
      12   367.0000     1.3320
      13   268.0000     1.5290
      14   367.0000     1.3320
      15   367.0000     1.3320
      16   340.0000     1.7700
      17   700.0000     1.4400
      18   700.0000     1.4400
      19   250.0000     1.7300
      20   250.0000     1.7300
      21   700.0000     1.4400
      22   700.0000     1.4400
      23   340.0000     1.7700
      24   367.0000     1.3320
      25   367.0000     1.3320
      26   367.0000     1.3320
      27   222.0000     1.8100
      28   222.0000     1.8100
      29   367.0000     1.3320
      30   367.0000     1.3320
      31   268.0000     1.5290
      32   367.0000     1.3600
      33   320.0000     1.4100
      34   320.0000     1.4100
      35   367.0000     1.3320
      36   367.0000     1.3320
      37   268.0000     1.5290
      38   367.0000     1.3320
      39   367.0000     1.3320
      40   340.0000     1.7700
      41   700.0000     1.4400
      42   700.0000     1.4400
      43   250.0000     1.7300
      44   250.0000     1.7300
      45   700.0000     1.4400
      46   700.0000     1.4400
      47   340.0000     1.7700
      48   367.0000     1.3320
      49   367.0000     1.3320
      50   367.0000     1.3320
      51   268.0000     1.5290
      52   222.0000     1.8100
      53   222.0000     1.8100
      54   367.0000     1.3320
      55   367.0000     1.3320
      56   268.0000     1.5290
      57   367.0000     1.3600
      58   320.0000     1.4100
      59   320.0000     1.4100
      60   367.0000     1.3320
      61   367.0000     1.3320
      62   268.0000     1.5290
      63   367.0000     1.3320
      64   367.0000     1.3320
      65   340.0000     1.7700
      66   700.0000     1.4400
      67   700.0000     1.4400
      68   250.0000     1.7300
      69   250.0000     1.7300
      70   700.0000     1.4400
      71   700.0000     1.4400
      72   340.0000     1.7700
      73   367.0000     1.3320
      74   367.0000     1.3320
      75   367.0000     1.3320
      76   268.0000     1.5290
      77   222.0000     1.8100
      78   222.0000     1.8100
      79   367.0000     1.3320
      80   367.0000     1.3320
      81   268.0000     1.5290
      82   367.0000     1.3600
      83   320.0000     1.4100
      84   320.0000     1.4100
      85   367.0000     1.3320
      86   367.0000     1.3320
      87   268.0000     1.5290
      88   367.0000     1.3320
      89   367.0000     1.3320
      90   340.0000     1.7700
      91   700.0000     1.4400
      92   700.0000     1.4400
      93   250.0000     1.7300
      94   250.0000     1.7300
      95   700.0000     1.4400
      96   340.0000     1.7700
      97   367.0000     1.3320
      98   367.0000     1.3320
      99   367.0000     1.3320
     100   700.0000     1.4400
     101   340.0000     1.0900
     102   340.0000     1.0900
     103   340.0000     1.0900
     104   340.0000     1.0900
     105   340.0000     1.0900
     106   340.0000     1.0900
     107   340.0000     1.0900
     108   340.0000     1.0900
     109   340.0000     1.0900
     110   340.0000     1.0900
     111   340.0000     1.0900
     112   340.0000     1.0900

Angle Coeffs

       1     58.350    112.700
       2     50.000    114.700
       3     62.000     98.900
       4     59.700    110.180
       5     59.700    110.180
       6     50.000    114.700
       7     50.000    109.500
       8     50.000    109.500
       9     60.000    109.500
      10     59.700    110.180
      11     59.700    110.180
      12     50.000    109.500
      13     50.000    109.500
      14     50.000    109.500
      15     50.000    114.700
      16     74.000    108.900
      17     74.000    108.900
      18     76.450    103.980
      19     80.290    117.310
      20     76.450    103.980
      21     76.450    103.980
      22     76.450    103.980
      23     50.000    109.500
      24     50.000    109.500
      25     50.000    109.500
      26     50.000    114.700
      27     62.000     98.900
      28     59.700    110.180
      29     59.700    110.180
      30     50.000    114.700
      31     50.000    109.500
      32     50.000    109.500
      33     60.000    109.500
      34     59.700    110.180
      35     59.700    110.180
      36     50.000    109.500
      37     50.000    109.500
      38     50.000    109.500
      39     50.000    114.700
      40     74.000    108.900
      41     74.000    108.900
      42     76.450    103.980
      43     80.290    117.310
      44     76.450    103.980
      45     76.450    103.980
      46     76.450    103.980
      47     50.000    109.500
      48     50.000    109.500
      49     50.000    109.500
      50     58.350    112.700
      51     50.000    114.700
      52     62.000     98.900
      53     59.700    110.180
      54     59.700    110.180
      55     50.000    114.700
      56     50.000    109.500
      57     50.000    109.500
      58     60.000    109.500
      59     59.700    110.180
      60     59.700    110.180
      61     50.000    109.500
      62     50.000    109.500
      63     50.000    109.500
      64     50.000    114.700
      65     74.000    108.900
      66     74.000    108.900
      67     76.450    103.980
      68     80.290    117.310
      69     76.450    103.980
      70     76.450    103.980
      71     76.450    103.980
      72     50.000    109.500
      73     50.000    109.500
      74     50.000    109.500
      75     58.350    112.700
      76     50.000    114.700
      77     62.000     98.900
      78     59.700    110.180
      79     59.700    110.180
      80     50.000    114.700
      81     50.000    109.500
      82     50.000    109.500
      83     60.000    109.500
      84     59.700    110.180
      85     59.700    110.180
      86     50.000    109.500
      87     50.000    109.500
      88     50.000    109.500
      89     50.000    114.700
      90     74.000    108.900
      91     74.000    108.900
      92     76.450    103.980
      93     80.290    117.310
      94     76.450    103.980
      95     76.450    103.980
      96     50.000    109.500
      97     50.000    109.500
      98     50.000    109.500
      99     76.450    103.980
     100     37.500    110.700
     101     37.500    110.700
     102     37.500    110.700
     103     37.500    110.700
     104     37.500    110.700
     105     37.500    110.700
     106     37.500    110.700
     107     37.500    110.700
     108     37.500    110.700
     109     37.500    110.700
     110     37.500    110.700
     111     37.500    110.700
     112     58.350    112.700
     113     58.350    112.700
     114     35.000    109.500
     115     35.000    109.500
     116     77.000    109.100
     117     50.000    109.500
     118     50.000    109.500
     119     51.140    110.240
     120     40.000    107.000
     121     35.000    109.500
     122     77.000    109.100
     123     50.000    109.500
     124     50.000    109.500
     125     77.000    109.100
     126     50.000    109.500
     127     50.000    109.500
     128    104.000    123.000
     129     76.450    103.980
     130     76.450    103.980
     131    104.000    123.000
     132     74.000    108.900
     133     74.000    108.900
     134     77.000    109.100
     135     77.000    109.100
     136     77.000    109.100
     137     35.000    109.500
     138     35.000    109.500
     139     77.000    109.100
     140     50.000    109.500
     141     50.000    109.500
     142     51.140    110.240
     143     40.000    107.000
     144     35.000    109.500
     145     77.000    109.100
     146     50.000    109.500
     147     50.000    109.500
     148     77.000    109.100
     149     50.000    109.500
     150     50.000    109.500
     151    104.000    123.000
     152     76.450    103.980
     153     76.450    103.980
     154    104.000    123.000
     155     74.000    108.900
     156     74.000    108.900
     157     77.000    109.100
     158     77.000    109.100
     159     77.000    109.100
     160     58.350    112.700
     161     35.000    109.500
     162     35.000    109.500
     163     77.000    109.100
     164     50.000    109.500
     165     50.000    109.500
     166     51.140    110.240
     167     40.000    107.000
     168     35.000    109.500
     169     77.000    109.100
     170     50.000    109.500
     171     50.000    109.500
     172     77.000    109.100
     173     50.000    109.500
     174     50.000    109.500
     175    104.000    123.000
     176     76.450    103.980
     177     76.450    103.980
     178    104.000    123.000
     179     74.000    108.900
     180     74.000    108.900
     181     77.000    109.100
     182     77.000    109.100
     183     77.000    109.100
     184     35.000    109.500
     185     35.000    109.500
     186     77.000    109.100
     187     50.000    109.500
     188     50.000    109.500
     189     51.140    110.240
     190     40.000    107.000
     191     35.000    109.500
     192     77.000    109.100
     193     50.000    109.500
     194     50.000    109.500
     195     77.000    109.100
     196     50.000    109.500
     197     50.000    109.500
     198    104.000    123.000
     199     76.450    103.980
     200     76.450    103.980
     201     74.000    108.900
     202    104.000    123.000
     203     74.000    108.900
     204     77.000    109.100
     205     77.000    109.100
     206     77.000    109.100
     207     33.000    107.800
     208     33.000    107.800
     209     33.000    107.800
     210     33.000    107.800

Dihedral Coeffs

       1     -1.565     -0.009     -0.450      0.000
       2      0.925     -0.576      0.677      0.000
       3      0.000      0.000      0.647      0.000
       4      0.000      0.000      0.647      0.000
       5      0.925     -0.576      0.677      0.000
       6     -2.500      0.000      0.250      0.000
       7      0.000      0.000      0.300      0.000
       8      0.250     -0.250      0.500      0.000
       9      0.000      5.124      0.000      0.000
      10      0.000      5.124      0.000      0.000
      11      0.250     -0.250      0.500      0.000
      12     -2.500      0.000      0.250      0.000
      13     -2.500      0.000      0.250      0.000
      14     -2.500      0.000      0.250      0.000
      15      0.000      0.000      0.000      0.000
      16      0.000      0.000      0.000      0.000
      17      1.656     -0.768     -0.117      0.000
      18      1.671     -4.901      0.669      0.000
      19      0.000      0.000      0.000      0.000
      20      0.000      0.000      0.000      0.000
      21      1.671     -4.901      0.669      0.000
      22      0.000      0.000      0.000      0.000
      23      0.000      0.000      0.000      0.000
      24      0.000      0.000      0.000      0.000
      25     -1.565     -0.009     -0.450      0.000
      26      0.925     -0.576      0.677      0.000
      27      0.000      0.000      0.647      0.000
      28      0.000      0.000      0.647      0.000
      29      0.925     -0.576      0.677      0.000
      30     -2.500      0.000      0.250      0.000
      31      0.000      0.000      0.300      0.000
      32      0.250     -0.250      0.500      0.000
      33      0.000      5.124      0.000      0.000
      34      0.000      5.124      0.000      0.000
      35      0.250     -0.250      0.500      0.000
      36     -2.500      0.000      0.250      0.000
      37     -2.500      0.000      0.250      0.000
      38     -2.500      0.000      0.250      0.000
      39      0.000      0.000      0.000      0.000
      40      0.000      0.000      0.000      0.000
      41      1.656     -0.768     -0.117      0.000
      42      1.671     -4.901      0.669      0.000
      43      0.000      0.000      0.000      0.000
      44      0.000      0.000      0.000      0.000
      45      1.671     -4.901      0.669      0.000
      46      0.000      0.000      0.000      0.000
      47      0.000      0.000      0.000      0.000
      48      0.000      0.000      0.000      0.000
      49     -1.565     -0.009     -0.450      0.000
      50     -1.565     -0.009     -0.450      0.000
      51      0.925     -0.576      0.677      0.000
      52      0.000      0.000      0.647      0.000
      53      0.000      0.000      0.647      0.000
      54      0.925     -0.576      0.677      0.000
      55     -2.500      0.000      0.250      0.000
      56      0.000      0.000      0.300      0.000
      57      0.250     -0.250      0.500      0.000
      58      0.000      5.124      0.000      0.000
      59      0.000      5.124      0.000      0.000
      60      0.250     -0.250      0.500      0.000
      61     -2.500      0.000      0.250      0.000
      62     -2.500      0.000      0.250      0.000
      63     -2.500      0.000      0.250      0.000
      64      0.000      0.000      0.000      0.000
      65      0.000      0.000      0.000      0.000
      66      1.656     -0.768     -0.117      0.000
      67      1.671     -4.901      0.669      0.000
      68      0.000      0.000      0.000      0.000
      69      0.000      0.000      0.000      0.000
      70      1.671     -4.901      0.669      0.000
      71      0.000      0.000      0.000      0.000
      72      0.000      0.000      0.000      0.000
      73      0.000      0.000      0.000      0.000
      74     -1.565     -0.009     -0.450      0.000
      75     -1.565     -0.009     -0.450      0.000
      76      0.925     -0.576      0.677      0.000
      77      0.000      0.000      0.647      0.000
      78      0.000      0.000      0.647      0.000
      79      0.925     -0.576      0.677      0.000
      80     -2.500      0.000      0.250      0.000
      81      0.000      0.000      0.300      0.000
      82      0.250     -0.250      0.500      0.000
      83      0.000      5.124      0.000      0.000
      84      0.000      5.124      0.000      0.000
      85      0.250     -0.250      0.500      0.000
      86     -2.500      0.000      0.250      0.000
      87     -2.500      0.000      0.250      0.000
      88     -2.500      0.000      0.250      0.000
      89      0.000      0.000      0.000      0.000
      90      0.000      0.000      0.000      0.000
      91      1.656     -0.768     -0.117      0.000
      92      1.671     -4.901      0.669      0.000
      93      0.000      0.000      0.000      0.000
      94      1.671     -4.901      0.669      0.000
      95      0.000      0.000      0.000      0.000
      96      0.000      0.000      0.000      0.000
      97      0.000      0.000      0.000      0.000
      98      0.000      0.000      0.000      0.000
      99      0.000      0.000      0.452      0.000
     100      0.000      0.000      0.300      0.000
     101      0.000      0.000      0.300      0.000
     102      0.000      0.000      0.300      0.000
     103      0.000      0.000      0.300      0.000
     104      0.000      0.000      0.452      0.000
     105      0.000      0.000      0.300      0.000
     106      0.000      0.000      0.300      0.000
     107      0.000      0.000      0.452      0.000
     108      0.000      0.000      0.300      0.000
     109      0.000      0.000      0.300      0.000
     110      0.000      0.000      0.452      0.000
     111     -1.565     -0.009     -0.450      0.000
     112      0.000      0.000      0.300      0.000
     113      0.000      0.000      0.300      0.000
     114     -1.565     -0.009     -0.450      0.000
     115      0.000      0.000      0.300      0.000
     116      0.000      0.000      0.300      0.000
     117     -1.565     -0.009     -0.450      0.000
     118     -1.565     -0.009     -0.450      0.000
     119      0.000      0.000      0.647      0.000
     120      0.000      0.000      0.647      0.000
     121     -2.500      0.000      0.250      0.000
     122      0.000      0.000      0.540      0.000
     123      0.000      0.000      0.360      0.000
     124     -2.500      0.000      0.250      0.000
     125      0.000      0.000      0.540      0.000
     126      0.000      0.000      0.360      0.000
     127      0.000      0.000      0.760      0.000
     128      0.000      0.000      0.760      0.000
     129     -2.500      0.000      0.250      0.000
     130     -2.500      0.000      0.250      0.000
     131     -2.500      0.000      0.250      0.000
     132     -2.500      0.000      0.250      0.000
     133     -2.500      0.000      0.250      0.000
     134     -2.500      0.000      0.250      0.000
     135      0.000      0.000      0.000      0.000
     136      0.000      0.000      0.000      0.000
     137      0.000      0.000      0.000      0.000
     138      0.000      0.000      0.000      0.000
     139      0.000      0.000      0.000      0.000
     140      0.000      0.000      0.000      0.000
     141      0.000      0.000      0.000      0.000
     142      0.000      0.000      0.000      0.000
     143      0.000      0.000      0.000      0.000
     144      0.000      0.000      0.000      0.000
     145      0.000      0.000      0.000      0.000
     146      0.000      0.000      0.000      0.000
     147      0.000      0.000      0.000      0.000
     148      0.000      0.000      0.000      0.000
     149      0.000      0.000      0.647      0.000
     150      0.000      0.000      0.647      0.000
     151     -2.500      0.000      0.250      0.000
     152      0.000      0.000      0.540      0.000
     153      0.000      0.000      0.360      0.000
     154     -2.500      0.000      0.250      0.000
     155      0.000      0.000      0.540      0.000
     156      0.000      0.000      0.360      0.000
     157      0.000      0.000      0.760      0.000
     158      0.000      0.000      0.760      0.000
     159     -2.500      0.000      0.250      0.000
     160     -2.500      0.000      0.250      0.000
     161     -2.500      0.000      0.250      0.000
     162     -2.500      0.000      0.250      0.000
     163     -2.500      0.000      0.250      0.000
     164     -2.500      0.000      0.250      0.000
     165      0.000      0.000      0.000      0.000
     166      0.000      0.000      0.000      0.000
     167      0.000      0.000      0.000      0.000
     168      0.000      0.000      0.000      0.000
     169      0.000      0.000      0.000      0.000
     170      0.000      0.000      0.000      0.000
     171      0.000      0.000      0.000      0.000
     172      0.000      0.000      0.000      0.000
     173      0.000      0.000      0.000      0.000
     174      0.000      0.000      0.000      0.000
     175      0.000      0.000      0.000      0.000
     176      0.000      0.000      0.000      0.000
     177      0.000      0.000      0.000      0.000
     178      0.000      0.000      0.000      0.000
     179      0.000      0.000      0.300      0.000
     180      0.000      0.000      0.300      0.000
     181      0.000      0.000      0.300      0.000
     182      0.000      0.000      0.300      0.000
     183     -1.565     -0.009     -0.450      0.000
     184      0.000      0.000      0.300      0.000
     185      0.000      0.000      0.300      0.000
     186     -1.565     -0.009     -0.450      0.000
     187      0.000      0.000      0.647      0.000
     188      0.000      0.000      0.647      0.000
     189     -2.500      0.000      0.250      0.000
     190      0.000      0.000      0.540      0.000
     191      0.000      0.000      0.360      0.000
     192     -2.500      0.000      0.250      0.000
     193      0.000      0.000      0.540      0.000
     194      0.000      0.000      0.360      0.000
     195      0.000      0.000      0.760      0.000
     196      0.000      0.000      0.760      0.000
     197     -2.500      0.000      0.250      0.000
     198     -2.500      0.000      0.250      0.000
     199     -2.500      0.000      0.250      0.000
     200     -2.500      0.000      0.250      0.000
     201     -2.500      0.000      0.250      0.000
     202     -2.500      0.000      0.250      0.000
     203      0.000      0.000      0.000      0.000
     204      0.000      0.000      0.000      0.000
     205      0.000      0.000      0.000      0.000
     206      0.000      0.000      0.000      0.000
     207      0.000      0.000      0.000      0.000
     208      0.000      0.000      0.000      0.000
     209      0.000      0.000      0.000      0.000
     210      0.000      0.000      0.000      0.000
     211      0.000      0.000      0.000      0.000
     212      0.000      0.000      0.000      0.000
     213      0.000      0.000      0.000      0.000
     214      0.000      0.000      0.000      0.000
     215      0.000      0.000      0.000      0.000
     216      0.000      0.000      0.000      0.000
     217      0.000      0.000      0.300      0.000
     218      0.000      0.000      0.300      0.000
     219      0.000      0.000      0.300      0.000
     220      0.000      0.000      0.300      0.000
     221      0.000      0.000      0.300      0.000
     222      0.000      0.000      0.300      0.000
     223      0.000      0.000      0.647      0.000
     224      0.000      0.000      0.647      0.000
     225     -2.500      0.000      0.250      0.000
     226      0.000      0.000      0.540      0.000
     227      0.000      0.000      0.360      0.000
     228     -2.500      0.000      0.250      0.000
     229      0.000      0.000      0.540      0.000
     230      0.000      0.000      0.360      0.000
     231      0.000      0.000      0.760      0.000
     232      0.000      0.000      0.760      0.000
     233     -2.500      0.000      0.250      0.000
     234     -2.500      0.000      0.250      0.000
     235     -2.500      0.000      0.250      0.000
     236     -2.500      0.000      0.250      0.000
     237     -2.500      0.000      0.250      0.000
     238     -2.500      0.000      0.250      0.000
     239      0.000      0.000      0.000      0.000
     240      0.000      0.000      0.000      0.000
     241      0.000      0.000      0.000      0.000
     242      0.000      0.000      0.000      0.000
     243      0.000      0.000      0.000      0.000
     244      0.000      0.000      0.000      0.000
     245      0.000      0.000      0.000      0.000
     246      0.000      0.000      0.000      0.000
     247      0.000      0.000      0.000      0.000
     248      0.000      0.000      0.000      0.000
     249      0.000      0.000      0.000      0.000
     250      0.000      0.000      0.000      0.000
     251      0.000      0.000      0.000      0.000
     252      0.000      0.000      0.000      0.000

Atoms

  1  1  1  -0.5079022758800333  -3.31300  -4.55800  -10.05800
  2  1  2  0.9332105886918297  -3.07100  -4.33200  -8.59800
  3  1  3  -0.5047194365325154  -1.62700  -3.91600  -8.40900
  4  1  4  -0.6684285829721405  -4.07600  -3.12000  -7.93600
  5  1  5  0.9516813049053326  -3.47000  -2.52600  -6.43500
  6  1  6  -0.5067620961137703  -4.35800  -2.80800  -5.27800
  7  1  7  -0.5101341554224982  -2.15100  -3.23600  -6.17100
  8  1  8  0.0679256460752426  -3.11200  -0.78400  -6.58700